 Q-Chem 4.4, Q-Chem, Inc., Pleasanton, CA (2016)
 Q-Chem 4.4.2 for Mac (Intel) OS X

User input:
--------------------------------------------------------------
$molecule
0 1
C 0 0 0
C 0 0 1.24253
$end

$rem
jobtype sp
exchange hf
basis sto-3g
scf_convergence 11
thresh 14
$end

--------------------------------------------------------------

             Standard Nuclear Orientation (Angstroms)
    I     Atom           X                Y                Z
 ----------------------------------------------------------------
    1      C       0.0000000000     0.0000000000    -0.6212650000
    2      C       0.0000000000     0.0000000000     0.6212650000
 ----------------------------------------------------------------

    8     -74.4220363997      7.25E-13 Convergence criterion met
 Total energy in the final basis set = -74.4220363997

                    Orbital Energies (a.u.)
 --------------------------------------------------------------

 Alpha MOs
 -- Occupied --
-11.050 -11.049  -0.969  -0.426  -0.370  -0.370

          Ground-State Mulliken Net Atomic Charges

     Atom                 Charge (a.u.)
  ----------------------------------------
      1 C                     0.000000
      2 C                     0.000000
  ----------------------------------------
  Sum of atomic charges =     0.000000

                    Cartesian Multipole Moments
 -----------------------------------------------------------------
    Charge (ESU x 10^10)
                 0.0000
    Dipole Moment (Debye)
         X       0.0000      Y       0.0000      Z       0.0000
       Tot       0.0000
    Quadrupole Moments (Debye-Ang)
        XX     -10.4285     XY       0.0000     YY     -10.4285
        XZ       0.0000     YZ       0.0000     ZZ      -7.7992

 Total job time:  0.39s(wall), 0.36s(cpu)
        *  Thank you very much for using Q-Chem.  Have a nice day.  *
